MODEL 1
REMARK VINA RESULT:    -7.472      0.000      0.000
REMARK INTER + INTRA:          -8.128
REMARK INTER:                  -8.128
REMARK INTRA:                   0.000
REMARK UNBOUND:                 0.000
REMARK  Name = 3220
REMARK  4 active torsions:
REMARK  status: ('A' for Active; 'I' for Inactive)
REMARK    1  A    between atoms: O_1  and  C_13
REMARK    2  A    between atoms: O_4  and  C_15
REMARK    3  A    between atoms: O_5  and  C_18
REMARK    4  A    between atoms: C_14  and  C_20
REMARK                            x       y       z     vdW  Elec       q    Type
REMARK                         _______ _______ _______ _____ _____    ______ ____
ROOT
ATOM      1  O   UNL     1     -46.939 -18.151  11.331  0.00  0.00    +0.000 OA
ATOM      2  O   UNL     1     -44.952 -18.042  16.277  0.00  0.00    +0.000 OA
ATOM      3  C   UNL     1     -46.834 -18.429  14.937  0.00  0.00    +0.000 A 
ATOM      4  C   UNL     1     -47.385 -18.479  13.655  0.00  0.00    +0.000 A 
ATOM      5  C   UNL     1     -45.099 -17.816  12.695  0.00  0.00    +0.000 A 
ATOM      6  C   UNL     1     -44.571 -17.780  13.984  0.00  0.00    +0.000 A 
ATOM      7  C   UNL     1     -46.524 -18.158  12.484  0.00  0.00    +0.000 C 
ATOM      8  C   UNL     1     -45.420 -18.082  15.143  0.00  0.00    +0.000 C 
ATOM      9  C   UNL     1     -47.616 -18.704  16.067  0.00  0.00    +0.000 A 
ATOM     10  C   UNL     1     -48.742 -18.810  13.528  0.00  0.00    +0.000 A 
ATOM     11  C   UNL     1     -48.965 -19.038  15.937  0.00  0.00    +0.000 A 
ATOM     12  C   UNL     1     -44.257 -17.516  11.613  0.00  0.00    +0.000 A 
ATOM     13  C   UNL     1     -43.228 -17.451  14.196  0.00  0.00    +0.000 A 
ATOM     14  C   UNL     1     -49.525 -19.092  14.657  0.00  0.00    +0.000 A 
ATOM     15  C   UNL     1     -42.413 -17.158  13.111  0.00  0.00    +0.000 A 
ATOM     16  C   UNL     1     -42.916 -17.188  11.817  0.00  0.00    +0.000 A 
ATOM     17  C   UNL     1     -49.767 -19.336  17.168  0.00  0.00    +0.000 C 
ENDROOT
BRANCH  10  18
ATOM     18  O   UNL     1     -49.334 -18.875  12.299  0.00  0.00    +0.000 OA
ATOM     19  H   UNL     1     -50.224 -18.599  12.192  0.00  0.00    +0.000 HD
ENDBRANCH  10  18
BRANCH  12  20
ATOM     20  O   UNL     1     -44.684 -17.522  10.311  0.00  0.00    +0.000 OA
ATOM     21  H   UNL     1     -44.072 -17.385   9.616  0.00  0.00    +0.000 HD
ENDBRANCH  12  20
BRANCH  15  22
ATOM     22  O   UNL     1     -41.113 -16.842  13.370  0.00  0.00    +0.000 OA
ATOM     23  H   UNL     1     -40.887 -15.976  13.648  0.00  0.00    +0.000 HD
ENDBRANCH  15  22
TORSDOF 3
ENDMDL
MODEL 2
REMARK VINA RESULT:    -7.449     56.668     58.597
REMARK INTER + INTRA:          -8.102
REMARK INTER:                  -8.102
REMARK INTRA:                   0.000
REMARK UNBOUND:                 0.000
REMARK  Name = 3220
REMARK  4 active torsions:
REMARK  status: ('A' for Active; 'I' for Inactive)
REMARK    1  A    between atoms: O_1  and  C_13
REMARK    2  A    between atoms: O_4  and  C_15
REMARK    3  A    between atoms: O_5  and  C_18
REMARK    4  A    between atoms: C_14  and  C_20
REMARK                            x       y       z     vdW  Elec       q    Type
REMARK                         _______ _______ _______ _____ _____    ______ ____
ROOT
ATOM      1  O   UNL     1     -30.195 -31.233 -41.394  0.00  0.00    +0.000 OA
ATOM      2  O   UNL     1     -25.756 -28.668 -39.932  0.00  0.00    +0.000 OA
ATOM      3  C   UNL     1     -28.071 -28.530 -40.267  0.00  0.00    +0.000 A 
ATOM      4  C   UNL     1     -29.255 -29.173 -40.633  0.00  0.00    +0.000 A 
ATOM      5  C   UNL     1     -27.914 -31.328 -41.013  0.00  0.00    +0.000 A 
ATOM      6  C   UNL     1     -26.748 -30.666 -40.637  0.00  0.00    +0.000 A 
ATOM      7  C   UNL     1     -29.206 -30.607 -41.033  0.00  0.00    +0.000 C 
ATOM      8  C   UNL     1     -26.788 -29.248 -40.256  0.00  0.00    +0.000 C 
ATOM      9  C   UNL     1     -28.071 -27.176 -39.905  0.00  0.00    +0.000 A 
ATOM     10  C   UNL     1     -30.443 -28.429 -40.629  0.00  0.00    +0.000 A 
ATOM     11  C   UNL     1     -29.256 -26.439 -39.897  0.00  0.00    +0.000 A 
ATOM     12  C   UNL     1     -27.833 -32.682 -41.376  0.00  0.00    +0.000 A 
ATOM     13  C   UNL     1     -25.519 -31.336 -40.622  0.00  0.00    +0.000 A 
ATOM     14  C   UNL     1     -30.447 -27.076 -40.261  0.00  0.00    +0.000 A 
ATOM     15  C   UNL     1     -25.463 -32.674 -40.985  0.00  0.00    +0.000 A 
ATOM     16  C   UNL     1     -26.612 -33.357 -41.362  0.00  0.00    +0.000 A 
ATOM     17  C   UNL     1     -29.218 -24.996 -39.493  0.00  0.00    +0.000 C 
ENDROOT
BRANCH  10  18
ATOM     18  O   UNL     1     -31.631 -29.006 -40.977  0.00  0.00    +0.000 OA
ATOM     19  H   UNL     1     -32.374 -28.930 -40.409  0.00  0.00    +0.000 HD
ENDBRANCH  10  18
BRANCH  12  20
ATOM     20  O   UNL     1     -28.923 -33.417 -41.762  0.00  0.00    +0.000 OA
ATOM     21  H   UNL     1     -28.809 -34.282 -42.100  0.00  0.00    +0.000 HD
ENDBRANCH  12  20
BRANCH  15  22
ATOM     22  O   UNL     1     -24.243 -33.282 -40.955  0.00  0.00    +0.000 OA
ATOM     23  H   UNL     1     -23.566 -33.002 -41.539  0.00  0.00    +0.000 HD
ENDBRANCH  15  22
TORSDOF 3
ENDMDL
MODEL 3
REMARK VINA RESULT:    -7.416      3.522      4.844
REMARK INTER + INTRA:          -8.066
REMARK INTER:                  -8.066
REMARK INTRA:                   0.000
REMARK UNBOUND:                 0.000
REMARK  Name = 3220
REMARK  4 active torsions:
REMARK  status: ('A' for Active; 'I' for Inactive)
REMARK    1  A    between atoms: O_1  and  C_13
REMARK    2  A    between atoms: O_4  and  C_15
REMARK    3  A    between atoms: O_5  and  C_18
REMARK    4  A    between atoms: C_14  and  C_20
REMARK                            x       y       z     vdW  Elec       q    Type
REMARK                         _______ _______ _______ _____ _____    ______ ____
ROOT
ATOM      1  O   UNL     1     -42.607 -18.786  16.069  0.00  0.00    +0.000 OA
ATOM      2  O   UNL     1     -44.690 -22.156  12.503  0.00  0.00    +0.000 OA
ATOM      3  C   UNL     1     -45.092 -20.387  13.985  0.00  0.00    +0.000 A 
ATOM      4  C   UNL     1     -44.579 -19.482  14.915  0.00  0.00    +0.000 A 
ATOM      5  C   UNL     1     -42.254 -20.509  14.565  0.00  0.00    +0.000 A 
ATOM      6  C   UNL     1     -42.789 -21.397  13.635  0.00  0.00    +0.000 A 
ATOM      7  C   UNL     1     -43.127 -19.526  15.244  0.00  0.00    +0.000 C 
ATOM      8  C   UNL     1     -44.222 -21.367  13.318  0.00  0.00    +0.000 C 
ATOM      9  C   UNL     1     -46.457 -20.391  13.663  0.00  0.00    +0.000 A 
ATOM     10  C   UNL     1     -45.464 -18.577  15.520  0.00  0.00    +0.000 A 
ATOM     11  C   UNL     1     -47.335 -19.487  14.263  0.00  0.00    +0.000 A 
ATOM     12  C   UNL     1     -40.879 -20.573  14.845  0.00  0.00    +0.000 A 
ATOM     13  C   UNL     1     -41.974 -22.335  12.993  0.00  0.00    +0.000 A 
ATOM     14  C   UNL     1     -46.829 -18.575  15.196  0.00  0.00    +0.000 A 
ATOM     15  C   UNL     1     -40.618 -22.381  13.285  0.00  0.00    +0.000 A 
ATOM     16  C   UNL     1     -40.060 -21.505  14.208  0.00  0.00    +0.000 A 
ATOM     17  C   UNL     1     -48.785 -19.515  13.886  0.00  0.00    +0.000 C 
ENDROOT
BRANCH  10  18
ATOM     18  O   UNL     1     -45.018 -17.668  16.437  0.00  0.00    +0.000 OA
ATOM     19  H   UNL     1     -45.129 -17.834  17.353  0.00  0.00    +0.000 HD
ENDBRANCH  10  18
BRANCH  12  20
ATOM     20  O   UNL     1     -40.263 -19.745  15.745  0.00  0.00    +0.000 OA
ATOM     21  H   UNL     1     -40.352 -18.816  15.665  0.00  0.00    +0.000 HD
ENDBRANCH  12  20
BRANCH  15  22
ATOM     22  O   UNL     1     -39.866 -23.313  12.634  0.00  0.00    +0.000 OA
ATOM     23  H   UNL     1     -40.186 -24.189  12.537  0.00  0.00    +0.000 HD
ENDBRANCH  15  22
TORSDOF 3
ENDMDL
MODEL 4
REMARK VINA RESULT:    -7.299     56.238     59.021
REMARK INTER + INTRA:          -7.939
REMARK INTER:                  -7.939
REMARK INTRA:                   0.000
REMARK UNBOUND:                 0.000
REMARK  Name = 3220
REMARK  4 active torsions:
REMARK  status: ('A' for Active; 'I' for Inactive)
REMARK    1  A    between atoms: O_1  and  C_13
REMARK    2  A    between atoms: O_4  and  C_15
REMARK    3  A    between atoms: O_5  and  C_18
REMARK    4  A    between atoms: C_14  and  C_20
REMARK                            x       y       z     vdW  Elec       q    Type
REMARK                         _______ _______ _______ _____ _____    ______ ____
ROOT
ATOM      1  O   UNL     1     -28.363 -30.136 -41.031  0.00  0.00    +0.000 OA
ATOM      2  O   UNL     1     -25.559 -25.623 -41.461  0.00  0.00    +0.000 OA
ATOM      3  C   UNL     1     -27.536 -26.629 -40.709  0.00  0.00    +0.000 A 
ATOM      4  C   UNL     1     -28.293 -27.794 -40.569  0.00  0.00    +0.000 A 
ATOM      5  C   UNL     1     -26.411 -29.102 -41.723  0.00  0.00    +0.000 A 
ATOM      6  C   UNL     1     -25.672 -27.928 -41.844  0.00  0.00    +0.000 A 
ATOM      7  C   UNL     1     -27.749 -29.078 -41.090  0.00  0.00    +0.000 C 
ATOM      8  C   UNL     1     -26.211 -26.656 -41.346  0.00  0.00    +0.000 C 
ATOM      9  C   UNL     1     -28.022 -25.396 -40.251  0.00  0.00    +0.000 A 
ATOM     10  C   UNL     1     -29.552 -27.698 -39.958  0.00  0.00    +0.000 A 
ATOM     11  C   UNL     1     -29.273 -25.305 -39.639  0.00  0.00    +0.000 A 
ATOM     12  C   UNL     1     -25.864 -30.297 -42.218  0.00  0.00    +0.000 A 
ATOM     13  C   UNL     1     -24.410 -27.937 -42.448  0.00  0.00    +0.000 A 
ATOM     14  C   UNL     1     -30.038 -26.467 -39.493  0.00  0.00    +0.000 A 
ATOM     15  C   UNL     1     -23.889 -29.130 -42.930  0.00  0.00    +0.000 A 
ATOM     16  C   UNL     1     -24.606 -30.315 -42.820  0.00  0.00    +0.000 A 
ATOM     17  C   UNL     1     -29.754 -23.971 -39.152  0.00  0.00    +0.000 C 
ENDROOT
BRANCH  10  18
ATOM     18  O   UNL     1     -30.336 -28.805 -39.794  0.00  0.00    +0.000 OA
ATOM     19  H   UNL     1     -29.943 -29.655 -39.749  0.00  0.00    +0.000 HD
ENDBRANCH  10  18
BRANCH  12  20
ATOM     20  O   UNL     1     -26.515 -31.501 -42.147  0.00  0.00    +0.000 OA
ATOM     21  H   UNL     1     -26.212 -32.228 -42.653  0.00  0.00    +0.000 HD
ENDBRANCH  12  20
BRANCH  15  22
ATOM     22  O   UNL     1     -22.657 -29.087 -43.510  0.00  0.00    +0.000 OA
ATOM     23  H   UNL     1     -22.501 -28.518 -44.239  0.00  0.00    +0.000 HD
ENDBRANCH  15  22
TORSDOF 3
ENDMDL
MODEL 5
REMARK VINA RESULT:    -7.082     23.566     25.521
REMARK INTER + INTRA:          -7.703
REMARK INTER:                  -7.703
REMARK INTRA:                   0.000
REMARK UNBOUND:                 0.000
REMARK  Name = 3220
REMARK  4 active torsions:
REMARK  status: ('A' for Active; 'I' for Inactive)
REMARK    1  A    between atoms: O_1  and  C_13
REMARK    2  A    between atoms: O_4  and  C_15
REMARK    3  A    between atoms: O_5  and  C_18
REMARK    4  A    between atoms: C_14  and  C_20
REMARK                            x       y       z     vdW  Elec       q    Type
REMARK                         _______ _______ _______ _____ _____    ______ ____
ROOT
ATOM      1  O   UNL     1     -36.943 -33.155  -7.411  0.00  0.00    +0.000 OA
ATOM      2  O   UNL     1     -36.875 -32.038  -2.199  0.00  0.00    +0.000 OA
ATOM      3  C   UNL     1     -36.881 -33.713  -3.837  0.00  0.00    +0.000 A 
ATOM      4  C   UNL     1     -36.887 -34.042  -5.194  0.00  0.00    +0.000 A 
ATOM      5  C   UNL     1     -36.900 -31.538  -5.755  0.00  0.00    +0.000 A 
ATOM      6  C   UNL     1     -36.886 -31.235  -4.396  0.00  0.00    +0.000 A 
ATOM      7  C   UNL     1     -36.908 -32.948  -6.204  0.00  0.00    +0.000 C 
ATOM      8  C   UNL     1     -36.880 -32.310  -3.395  0.00  0.00    +0.000 C 
ATOM      9  C   UNL     1     -36.882 -34.713  -2.854  0.00  0.00    +0.000 A 
ATOM     10  C   UNL     1     -36.894 -35.399  -5.548  0.00  0.00    +0.000 A 
ATOM     11  C   UNL     1     -36.884 -36.063  -3.210  0.00  0.00    +0.000 A 
ATOM     12  C   UNL     1     -36.911 -30.482  -6.681  0.00  0.00    +0.000 A 
ATOM     13  C   UNL     1     -36.886 -29.906  -3.960  0.00  0.00    +0.000 A 
ATOM     14  C   UNL     1     -36.888 -36.402  -4.567  0.00  0.00    +0.000 A 
ATOM     15  C   UNL     1     -36.898 -28.878  -4.893  0.00  0.00    +0.000 A 
ATOM     16  C   UNL     1     -36.910 -29.154  -6.254  0.00  0.00    +0.000 A 
ATOM     17  C   UNL     1     -36.874 -37.103  -2.131  0.00  0.00    +0.000 C 
ENDROOT
BRANCH  10  18
ATOM     18  O   UNL     1     -36.899 -35.780  -6.860  0.00  0.00    +0.000 OA
ATOM     19  H   UNL     1     -37.058 -36.675  -7.087  0.00  0.00    +0.000 HD
ENDBRANCH  10  18
BRANCH  12  20
ATOM     20  O   UNL     1     -36.927 -30.679  -8.037  0.00  0.00    +0.000 OA
ATOM     21  H   UNL     1     -37.735 -30.627  -8.508  0.00  0.00    +0.000 HD
ENDBRANCH  12  20
BRANCH  15  22
ATOM     22  O   UNL     1     -36.897 -27.600  -4.418  0.00  0.00    +0.000 OA
ATOM     23  H   UNL     1     -36.206 -27.309  -3.856  0.00  0.00    +0.000 HD
ENDBRANCH  15  22
TORSDOF 3
ENDMDL
MODEL 6
REMARK VINA RESULT:    -6.961      2.468      5.910
REMARK INTER + INTRA:          -7.571
REMARK INTER:                  -7.571
REMARK INTRA:                   0.000
REMARK UNBOUND:                 0.000
REMARK  Name = 3220
REMARK  4 active torsions:
REMARK  status: ('A' for Active; 'I' for Inactive)
REMARK    1  A    between atoms: O_1  and  C_13
REMARK    2  A    between atoms: O_4  and  C_15
REMARK    3  A    between atoms: O_5  and  C_18
REMARK    4  A    between atoms: C_14  and  C_20
REMARK                            x       y       z     vdW  Elec       q    Type
REMARK                         _______ _______ _______ _____ _____    ______ ____
ROOT
ATOM      1  O   UNL     1     -45.008 -17.343  15.698  0.00  0.00    +0.000 OA
ATOM      2  O   UNL     1     -46.137 -21.271  12.275  0.00  0.00    +0.000 OA
ATOM      3  C   UNL     1     -44.530 -20.309  13.682  0.00  0.00    +0.000 A 
ATOM      4  C   UNL     1     -44.203 -19.301  14.591  0.00  0.00    +0.000 A 
ATOM      5  C   UNL     1     -46.572 -18.352  14.322  0.00  0.00    +0.000 A 
ATOM      6  C   UNL     1     -46.876 -19.371  13.423  0.00  0.00    +0.000 A 
ATOM      7  C   UNL     1     -45.226 -18.274  14.932  0.00  0.00    +0.000 C 
ATOM      8  C   UNL     1     -45.867 -20.378  13.073  0.00  0.00    +0.000 C 
ATOM      9  C   UNL     1     -43.589 -21.282  13.319  0.00  0.00    +0.000 A 
ATOM     10  C   UNL     1     -42.909 -19.288  15.131  0.00  0.00    +0.000 A 
ATOM     11  C   UNL     1     -42.303 -21.270  13.862  0.00  0.00    +0.000 A 
ATOM     12  C   UNL     1     -47.563 -17.404  14.627  0.00  0.00    +0.000 A 
ATOM     13  C   UNL     1     -48.143 -19.450  12.834  0.00  0.00    +0.000 A 
ATOM     14  C   UNL     1     -41.968 -20.264  14.775  0.00  0.00    +0.000 A 
ATOM     15  C   UNL     1     -49.107 -18.503  13.150  0.00  0.00    +0.000 A 
ATOM     16  C   UNL     1     -48.829 -17.477  14.045  0.00  0.00    +0.000 A 
ATOM     17  C   UNL     1     -41.328 -22.334  13.458  0.00  0.00    +0.000 C 
ENDROOT
BRANCH  10  18
ATOM     18  O   UNL     1     -42.534 -18.326  16.026  0.00  0.00    +0.000 OA
ATOM     19  H   UNL     1     -42.075 -17.564  15.730  0.00  0.00    +0.000 HD
ENDBRANCH  10  18
BRANCH  12  20
ATOM     20  O   UNL     1     -47.358 -16.365  15.496  0.00  0.00    +0.000 OA
ATOM     21  H   UNL     1     -46.573 -16.328  16.005  0.00  0.00    +0.000 HD
ENDBRANCH  12  20
BRANCH  15  22
ATOM     22  O   UNL     1     -50.325 -18.623  12.550  0.00  0.00    +0.000 OA
ATOM     23  H   UNL     1     -51.020 -19.073  12.988  0.00  0.00    +0.000 HD
ENDBRANCH  15  22
TORSDOF 3
ENDMDL
MODEL 7
REMARK VINA RESULT:    -6.869     56.560     59.148
REMARK INTER + INTRA:          -7.472
REMARK INTER:                  -7.472
REMARK INTRA:                   0.000
REMARK UNBOUND:                 0.000
REMARK  Name = 3220
REMARK  4 active torsions:
REMARK  status: ('A' for Active; 'I' for Inactive)
REMARK    1  A    between atoms: O_1  and  C_13
REMARK    2  A    between atoms: O_4  and  C_15
REMARK    3  A    between atoms: O_5  and  C_18
REMARK    4  A    between atoms: C_14  and  C_20
REMARK                            x       y       z     vdW  Elec       q    Type
REMARK                         _______ _______ _______ _____ _____    ______ ____
ROOT
ATOM      1  O   UNL     1     -32.477 -29.827 -40.223  0.00  0.00    +0.000 OA
ATOM      2  O   UNL     1     -28.571 -30.807 -43.715  0.00  0.00    +0.000 OA
ATOM      3  C   UNL     1     -30.828 -31.118 -43.173  0.00  0.00    +0.000 A 
ATOM      4  C   UNL     1     -31.878 -30.871 -42.286  0.00  0.00    +0.000 A 
ATOM      5  C   UNL     1     -30.263 -29.518 -40.821  0.00  0.00    +0.000 A 
ATOM      6  C   UNL     1     -29.234 -29.772 -41.725  0.00  0.00    +0.000 A 
ATOM      7  C   UNL     1     -31.618 -30.063 -41.063  0.00  0.00    +0.000 C 
ATOM      8  C   UNL     1     -29.482 -30.580 -42.926  0.00  0.00    +0.000 C 
ATOM      9  C   UNL     1     -31.027 -31.891 -44.325  0.00  0.00    +0.000 A 
ATOM     10  C   UNL     1     -33.136 -31.418 -42.578  0.00  0.00    +0.000 A 
ATOM     11  C   UNL     1     -32.282 -32.430 -44.615  0.00  0.00    +0.000 A 
ATOM     12  C   UNL     1     -29.985 -28.745 -39.682  0.00  0.00    +0.000 A 
ATOM     13  C   UNL     1     -27.948 -29.269 -41.503  0.00  0.00    +0.000 A 
ATOM     14  C   UNL     1     -33.340 -32.187 -43.733  0.00  0.00    +0.000 A 
ATOM     15  C   UNL     1     -27.695 -28.507 -40.370  0.00  0.00    +0.000 A 
ATOM     16  C   UNL     1     -28.705 -28.239 -39.455  0.00  0.00    +0.000 A 
ATOM     17  C   UNL     1     -32.458 -33.243 -45.863  0.00  0.00    +0.000 C 
ENDROOT
BRANCH  10  18
ATOM     18  O   UNL     1     -34.200 -31.209 -41.747  0.00  0.00    +0.000 OA
ATOM     19  H   UNL     1     -34.487 -30.335 -41.564  0.00  0.00    +0.000 HD
ENDBRANCH  10  18
BRANCH  12  20
ATOM     20  O   UNL     1     -30.929 -28.444 -38.737  0.00  0.00    +0.000 OA
ATOM     21  H   UNL     1     -31.601 -29.064 -38.532  0.00  0.00    +0.000 HD
ENDBRANCH  12  20
BRANCH  15  22
ATOM     22  O   UNL     1     -26.426 -28.040 -40.198  0.00  0.00    +0.000 OA
ATOM     23  H   UNL     1     -25.879 -27.886 -40.943  0.00  0.00    +0.000 HD
ENDBRANCH  15  22
TORSDOF 3
ENDMDL
MODEL 8
REMARK VINA RESULT:    -6.855     35.636     37.658
REMARK INTER + INTRA:          -7.456
REMARK INTER:                  -7.456
REMARK INTRA:                   0.000
REMARK UNBOUND:                 0.000
REMARK  Name = 3220
REMARK  4 active torsions:
REMARK  status: ('A' for Active; 'I' for Inactive)
REMARK    1  A    between atoms: O_1  and  C_13
REMARK    2  A    between atoms: O_4  and  C_15
REMARK    3  A    between atoms: O_5  and  C_18
REMARK    4  A    between atoms: C_14  and  C_20
REMARK                            x       y       z     vdW  Elec       q    Type
REMARK                         _______ _______ _______ _____ _____    ______ ____
ROOT
ATOM      1  O   UNL     1     -45.177 -35.641 -16.905  0.00  0.00    +0.000 OA
ATOM      2  O   UNL     1     -44.795 -34.937 -22.175  0.00  0.00    +0.000 OA
ATOM      3  C   UNL     1     -45.305 -33.962 -20.107  0.00  0.00    +0.000 A 
ATOM      4  C   UNL     1     -45.405 -34.108 -18.722  0.00  0.00    +0.000 A 
ATOM      5  C   UNL     1     -44.649 -36.547 -18.968  0.00  0.00    +0.000 A 
ATOM      6  C   UNL     1     -44.550 -36.375 -20.347  0.00  0.00    +0.000 A 
ATOM      7  C   UNL     1     -45.086 -35.426 -18.107  0.00  0.00    +0.000 C 
ATOM      8  C   UNL     1     -44.877 -35.082 -20.960  0.00  0.00    +0.000 C 
ATOM      9  C   UNL     1     -45.616 -32.744 -20.727  0.00  0.00    +0.000 A 
ATOM     10  C   UNL     1     -45.825 -33.003 -17.967  0.00  0.00    +0.000 A 
ATOM     11  C   UNL     1     -46.030 -31.645 -19.972  0.00  0.00    +0.000 A 
ATOM     12  C   UNL     1     -44.333 -37.801 -18.421  0.00  0.00    +0.000 A 
ATOM     13  C   UNL     1     -44.145 -37.431 -21.171  0.00  0.00    +0.000 A 
ATOM     14  C   UNL     1     -46.131 -31.781 -18.584  0.00  0.00    +0.000 A 
ATOM     15  C   UNL     1     -43.837 -38.662 -20.609  0.00  0.00    +0.000 A 
ATOM     16  C   UNL     1     -43.927 -38.858 -19.236  0.00  0.00    +0.000 A 
ATOM     17  C   UNL     1     -46.343 -30.355 -20.669  0.00  0.00    +0.000 C 
ENDROOT
BRANCH  10  18
ATOM     18  O   UNL     1     -45.941 -33.087 -16.609  0.00  0.00    +0.000 OA
ATOM     19  H   UNL     1     -46.575 -32.563 -16.159  0.00  0.00    +0.000 HD
ENDBRANCH  10  18
BRANCH  12  20
ATOM     20  O   UNL     1     -44.402 -38.068 -17.079  0.00  0.00    +0.000 OA
ATOM     21  H   UNL     1     -44.885 -37.500 -16.513  0.00  0.00    +0.000 HD
ENDBRANCH  12  20
BRANCH  15  22
ATOM     22  O   UNL     1     -43.448 -39.658 -21.453  0.00  0.00    +0.000 OA
ATOM     23  H   UNL     1     -43.338 -39.481 -22.367  0.00  0.00    +0.000 HD
ENDBRANCH  15  22
TORSDOF 3
ENDMDL
MODEL 9
REMARK VINA RESULT:    -6.789     35.845     37.050
REMARK INTER + INTRA:          -7.384
REMARK INTER:                  -7.384
REMARK INTRA:                   0.000
REMARK UNBOUND:                 0.000
REMARK  Name = 3220
REMARK  4 active torsions:
REMARK  status: ('A' for Active; 'I' for Inactive)
REMARK    1  A    between atoms: O_1  and  C_13
REMARK    2  A    between atoms: O_4  and  C_15
REMARK    3  A    between atoms: O_5  and  C_18
REMARK    4  A    between atoms: C_14  and  C_20
REMARK                            x       y       z     vdW  Elec       q    Type
REMARK                         _______ _______ _______ _____ _____    ______ ____
ROOT
ATOM      1  O   UNL     1     -43.909 -34.019 -19.590  0.00  0.00    +0.000 OA
ATOM      2  O   UNL     1     -49.140 -34.709 -18.829  0.00  0.00    +0.000 OA
ATOM      3  C   UNL     1     -47.422 -33.195 -19.320  0.00  0.00    +0.000 A 
ATOM      4  C   UNL     1     -46.059 -32.979 -19.537  0.00  0.00    +0.000 A 
ATOM      5  C   UNL     1     -45.646 -35.481 -19.143  0.00  0.00    +0.000 A 
ATOM      6  C   UNL     1     -47.011 -35.672 -18.938  0.00  0.00    +0.000 A 
ATOM      7  C   UNL     1     -45.120 -34.131 -19.441  0.00  0.00    +0.000 C 
ATOM      8  C   UNL     1     -47.940 -34.538 -19.017  0.00  0.00    +0.000 C 
ATOM      9  C   UNL     1     -48.336 -32.134 -19.380  0.00  0.00    +0.000 A 
ATOM     10  C   UNL     1     -45.630 -31.673 -19.815  0.00  0.00    +0.000 A 
ATOM     11  C   UNL     1     -47.906 -30.836 -19.662  0.00  0.00    +0.000 A 
ATOM     12  C   UNL     1     -44.790 -36.591 -19.054  0.00  0.00    +0.000 A 
ATOM     13  C   UNL     1     -47.519 -36.943 -18.648  0.00  0.00    +0.000 A 
ATOM     14  C   UNL     1     -46.543 -30.611 -19.882  0.00  0.00    +0.000 A 
ATOM     15  C   UNL     1     -46.654 -38.025 -18.565  0.00  0.00    +0.000 A 
ATOM     16  C   UNL     1     -45.289 -37.861 -18.766  0.00  0.00    +0.000 A 
ATOM     17  C   UNL     1     -48.915 -29.730 -19.729  0.00  0.00    +0.000 C 
ENDROOT
BRANCH  10  18
ATOM     18  O   UNL     1     -44.309 -31.404 -20.037  0.00  0.00    +0.000 OA
ATOM     19  H   UNL     1     -43.868 -31.790 -20.769  0.00  0.00    +0.000 HD
ENDBRANCH  10  18
BRANCH  12  20
ATOM     20  O   UNL     1     -43.435 -36.503 -19.237  0.00  0.00    +0.000 OA
ATOM     21  H   UNL     1     -42.870 -36.372 -18.501  0.00  0.00    +0.000 HD
ENDBRANCH  12  20
BRANCH  15  22
ATOM     22  O   UNL     1     -47.197 -39.242 -18.279  0.00  0.00    +0.000 OA
ATOM     23  H   UNL     1     -46.997 -39.982 -18.818  0.00  0.00    +0.000 HD
ENDBRANCH  15  22
TORSDOF 3
ENDMDL
